VARIABLES = "X" "temp" "u" "rho" "X0" "XRHO"
 ZONE I=6 FORMAT=POINT
0                         298                       34.8937627534755          0.00124434631149345       -2.2066767215986          0.00124434631149345       
0.25                      297.999999984168          34.893762751973           0.00124434631154703       -2.20667672156483         0.00124434631154703       
0.625                     297.999999957538          34.8937627533132          0.00124434631149924       -2.2066767214257          0.00124434631149924       
0.875                     297.999999945698          34.8937627969749          0.00124434630994223       -2.20667671999604         0.00124434630994223       
1.125                     297.999999937779          34.8937633603001          0.00124434628985349       -2.20667670207569         0.00124434628985349       
1.3125                    297.999999933769          34.8937680541311          0.00124434612246684       -2.20667655298045         0.00124434612246684       
1.4375                    297.999999938779          34.8937937461882          0.00124434520626348       -2.20667573697417         0.00124434520626348       
1.5                       298.000000008838          34.893862166211           0.00124434276634652       -2.20667356393331         0.00124434276634652       
1.53125                   298.000000354116          34.8939703946097          0.00124433890684812       -2.20667012677617         0.00124433890684812       
1.5625                    298.000002600507          34.8942348455359          0.00124432947644872       -2.2066617296114          0.00124432947644872       
1.59375                   298.000017109898          34.8948816972049          0.00124430641012644       -2.20664119979752         0.00124430641012644       
1.609375                  298.000054021737          34.8955575142777          0.00124428231182957       -2.20661977679783         0.00124428231182957       
1.625                     298.000191496813          34.8967294677149          0.00124424052450636       -2.20658272229454         0.00124424052450636       
1.640625                  298.000703424781          34.8987794512259          0.00124416743677761       -2.20651828393609         0.00124416743677761       
1.6484375                 298.001482168706          34.900404801262           0.00124410949453962       -2.20646774286643         0.00124410949453962       
1.65625                   298.003320978804          34.9027094660245          0.00124402734460588       -2.20639721466499         0.00124402734460588       
1.6640625                 298.007662060393          34.9060651851617          0.00124390774916386       -2.20629719708803         0.00124390774916386       
1.671875                  298.017907867441          34.911149867484           0.00124372657851686       -2.20615176951341         0.00124372657851686       
1.67578125                298.028254691576          34.914838566909           0.00124359518070472       -2.20605131520751         0.00124359518070472       
1.6796875                 298.045632279284          34.9198094314422          0.00124341815387958       -2.20592209024731         0.00124341815387958       
1.68359375                298.074812157408          34.9267119377669          0.00124317241928522       -2.20575193322534         0.00124317241928522       
1.6875                    298.123797407622          34.9365955876015          0.00124282072272685       -2.20552191296355         0.00124282072272685       
1.69140625                298.206003092519          34.9511726169973          0.00124230238150577       -2.20520209737521         0.00124230238150577       
1.6953125                 298.343896997878          34.9732553850972          0.00124151796856094       -2.20474458305522         0.00124151796856094       
1.697265625               298.447838433245          34.9888534819295          0.00124096449753455       -2.20443510926636         0.00124096449753455       
1.69921875                298.586912377952          35.0089314039162          0.00124025279379877       -2.20404818663596         0.00124025279379877       
1.701171875               298.772938971218          35.0349250902412          0.00123933260514246       -2.20356053791496         0.00123933260514246       
1.703125                  299.02167962781           35.0687429588502          0.00123813747860574       -2.20294144738483         0.00123813747860574       
1.705078125               299.354126784364          35.1129200450358          0.00123657972426411       -2.20215036987622         0.00123657972426411       
1.70703125                299.798198218524          35.1708205187829          0.001234543987036         -2.20113379892426         0.001234543987036         
1.708984375               300.390949975215          35.2469022709408          0.00123187917794712       -2.19982119172995         0.00123187917794712       
1.7109375                 301.18144434709           35.3470599936427          0.00122838858473156       -2.19811971600533         0.00122838858473156       
1.712890625               302.234428346791          35.479065546264           0.0012238181682143        -2.19590756542495         0.0012238181682143        
1.71484375                303.634985694917          35.6531254620811          0.00121784344156664       -2.19302560659521         0.00121784344156664       
1.716796875               305.49430751991           35.8825735657342          0.00121005604423842       -2.18926720487477         0.00121005604423842       
1.71875                   307.956661216001          36.1847091748208          0.00119995230110642       -2.18436627945001         0.00119995230110642       
1.720703125               311.207490601472          36.5817743584422          0.0011869278026148        -2.17798402504643         0.0011869278026148        
1.7216796875              313.218899504869          36.826757462324           0.00117903198804328       -2.17406151800562         0.00117903198804328       
1.72265625                315.544983764667          37.1095750674478          0.0011700464097135        -2.16955072840869         0.0011700464097135        
1.7236328125              318.230892943963          37.4356498804729          0.00115985498375463       -2.16436968533077         0.00115985498375463       
1.724609375               321.326988456517          37.8110350174876          0.00114834003022429       -2.15842753571002         0.00114834003022429       
1.7255859375              324.889066474049          38.2424427736459          0.00113538576400612       -2.15162436063562         0.00113538576400612       
1.7265625                 328.978474033601          38.7372610811867          0.0011208826826048        -2.14385122548977         0.0011208826826048        
1.7275390625              333.662084243707          39.3035536183837          0.00110473280737972       -2.13499051806137         0.00110473280737972       
1.72802734375             336.255344166808          39.6169808846             0.00109599278301311       -2.13008357954881         0.00109599278301311       
1.728515625               339.031612702225          39.9524349976872          0.00108679045826435       -2.12484051499504         0.00108679045826435       
1.72900390625             342.00143431415           40.3111923988594          0.00107711835253054       -2.11924265466171         0.00107711835253054       
1.7294921875              345.17565112428           40.6945671660944          0.00106697105225468       -2.11327088006211         0.00106697105225468       
1.72998046875             348.565372709255          41.1039076335614          0.00105634543416455       -2.10690568222467         0.00105634543416455       
1.73046875                352.181940992129          41.5405924458247          0.00104524087411847       -2.10012722746186         0.00104524087411847       
1.73095703125             356.036890527416          42.0060260851582          0.00103365943437509       -2.0929154290547          0.00103365943437509       
1.7314453125              360.141904315656          42.5016338907322          0.00102160602293027       -2.08525002423344         0.00102160602293027       
1.73193359375             364.508765437012          43.0288566076748          0.0010090885185766        -2.07711065544612         0.0010090885185766        
1.732421875               369.149304907372          43.5891445181792          0.00099611785578342       -2.06847695471897         0.00099611785578342       
1.73291015625             374.075346273425          44.1839512212511          0.000982708064235282      -2.05932862974606         0.000982708064235282      
1.7333984375              379.298647570444          44.8147271413977          0.000968876258898226      -2.04964555021026         0.000968876258898226      
1.73388671875             384.830841363642          45.4829128592149          0.000954642577784096      -2.03940783274081         0.000954642577784096      
1.734375                  390.683373676226          46.189932367756           0.000940030066106415      -2.02859592286183         0.000940030066106415      
1.73486328125             396.867442670492          46.937186367278           0.00092506450720574       -2.01719067228444         0.00092506450720574       
1.7353515625              403.393937989265          47.7260457168753          0.000909774202385976      -2.00517340994608         0.000909774202385976      
1.73583984375             410.273381680658          48.5578451645276          0.00089418970355661       -1.99252600530203         0.00089418970355661       
1.736328125               417.515871618159          49.433877476547           0.000878343504225427      -1.97923092252344         0.000878343504225427      
1.73681640625             425.131028289496          50.3553880839418          0.000862269695832555      -1.9652712644443          0.000862269695832555      
1.737060546875            429.082865212638          50.8338192434276          0.000854154297489364      -1.95800132574001         0.000854154297489364      
1.7373046875              433.132819125388          51.3242601600385          0.000845992227204718      -1.95055396682949         0.000845992227204718      
1.737548828125            437.281968758065          51.8268561852728          0.000837788134491765      -1.9429271119532          0.000837788134491765      
1.73779296875             441.531352526692          52.341748853723           0.000829546702362006      -1.93511873098792         0.000829546702362006      
1.738037109375            445.881967506303          52.8690758256036          0.000821272633891997      -1.92712683896693         0.000821272633891997      
1.73828125                450.334768354645          53.4089708272166          0.000812970639189014      -1.9189494959917          0.000812970639189014      
1.738525390625            454.890666381404          53.9615636131708          0.000804645422435035      -1.91058480676256         0.000804645422435035      
1.73876953125             459.550528727709          54.5269799462222          0.000796301669162531      -1.90203091987953         0.000796301669162531      
1.739013671875            464.31517765723           55.1053415950334          0.000787944033834483      -1.89328602691418         0.000787944033834483      
1.7392578125              469.185389959466          55.6967663500436          0.000779577127796745      -1.88434836125496         0.000779577127796745      
1.739501953125            474.161896465124          56.301368057561           0.000771205507666031      -1.87521619672895         0.000771205507666031      
1.73974609375             479.24538167272           56.9192566721004          0.000762833664211871      -1.86588784600408         0.000762833664211871      
1.739990234375            484.436483485103          57.5505383269064          0.000754466011784561      -1.85636165877603         0.000754466011784561      
1.740234375               489.735793053796          58.1953154224705          0.000746106878335608      -1.84663601974536         0.000746106878335608      
1.740478515625            495.14385472842           58.8536867327962          0.000737760496070835      -1.83670934639061         0.000737760496070835      
1.74072265625             500.661166108133          59.5257475290683          0.00072943099276951       -1.82658008654362         0.00072943099276951       
1.740966796875            506.288178191309          60.2115897202897          0.000721122383796852      -1.81624671577393         0.000721122383796852      
1.7412109375              512.025295619187          60.9113020103885          0.000712838564830652      -1.80570773458977         0.000712838564830652      
1.741455078125            517.872877009057          61.6249700711654          0.000704583305316293      -1.79496166546304         0.000704583305316293      
1.74169921875             523.831235371978          62.3526767304606          0.000696360242658454      -1.78400704968623         0.000696360242658454      
1.741943359375            529.900638609736          63.0945021747424          0.000688172877152023      -1.7728424440702          0.000688172877152023      
1.7421875                 536.08131008575           63.8505241653431          0.000680024567648798      -1.76146641749091         0.000680024567648798      
1.742431640625            542.373429264286          64.6208182674482          0.000671918527951725      -1.74987754729454         0.000671918527951725      
1.74267578125             548.777132412263          65.4054580908508          0.00066385782392354       -1.73807441557063         0.00066385782392354       
1.742919921875            555.292513358064          66.2045155415099          0.000655845371292222      -1.72605560530301         0.000655845371292222      
1.7431640625              561.91962430176           67.0180610827642          0.000647883934131935      -1.71381969640928         0.000647883934131935      
1.743408203125            568.658476671299          67.8461640050843          0.000639976123994671      -1.70136526167976         0.000639976123994671      
1.74365234375             575.509042019294          68.6888927030948          0.000632124399665188      -1.6886908626286          0.000632124399665188      
1.743896484375            582.471252955648          69.5463149585539          0.00062433106750904       -1.67579504526934         0.00062433106750904       
1.744140625               589.545004111295          70.4184982278948          0.000616598282382016      -1.66267633582975         0.000616598282382016      
1.744384765625            596.730153128775          71.3055099327844          0.000608928049067882      -1.64933323642138         0.000608928049067882      
1.74462890625             604.026521676091          72.2074177521036          0.000601322224210115      -1.63576422068121         0.000601322224210115      
1.744873046875            611.433896480561          73.1242899135552          0.000593782518703252      -1.62196772940475         0.000593782518703252      
1.7451171875              618.95203037995           74.0561954830038          0.000586310500509271      -1.6079421661926          0.000586310500509271      
1.745361328125            626.58064338908           75.0032046494314          0.000578907597864684      -1.59368589313453         0.000578907597864684      
1.74560546875             634.319423780489          75.9653890032375          0.000571575102844876      -1.57919722655883         0.000571575102844876      
1.745849609375            642.168029178419          76.9428218052929          0.000564314175253398      -1.56447443287834         0.000564314175253398      
1.74609375                650.126087666412          77.9355782439769          0.00055712584680486       -1.54951572456806         0.00055712584680486       
1.746337890625            658.193198909261          78.9437356770486          0.000550011025572041      -1.53431925631457         0.000550011025572041      
1.74658203125             666.368935290825          79.9673738548288          0.000542970500669589      -1.51888312138294         0.000542970500669589      
1.746826171875            674.652843070333          81.0065751208256          0.000536004947148396      -1.50320534825267         0.000536004947148396      
1.7470703125              683.044443560344          82.061424585399           0.000529114931077125      -1.4872838975823          0.000529114931077125      
1.747314453125            691.543234330455          83.1320102675579          0.00052230091478961       -1.47111665957104         0.00052230091478961       
1.74755859375             700.148690442083          84.2184231994121          0.000515563262278842      -1.454701451796           0.000515563262278842      
1.747802734375            708.860265720453          85.320757487106           0.000508902244720867      -1.43803601761625         0.000508902244720867      
1.748046875               717.677394070904          86.4391103213214          0.000502318046114272      -1.42111802524897         0.000502318046114272      
1.748291015625            726.599490848079          87.5735819296584          0.000495810769022997      -1.40394506763841         0.000495810769022997      
1.74853515625             735.625954287165          88.7242754622621          0.000489380440412676      -1.38651466325581         0.000489380440412676      
1.748779296875            744.756167007146          89.8912968010903          0.000483027017572925      -1.36882425798596         0.000483027017572925      
1.7490234375              753.989497596997          91.0747542821874          0.000476750394119553      -1.35087122827368         0.000476750394119553      
1.749267578125            763.325302295981          92.2747583182427          0.000470550406077641      -1.33265288573052         0.000470550406077641      
1.7493896484375           768.031564351383          92.881128898013           0.000467478437792021      -1.32341561456526         0.000467478437792021      
1.74951171875             772.763336599711          93.4917127817231          0.000464425388070754      -1.31410998066224         0.000464425388070754      
1.7496337890625           777.520569333587          94.1065300477005          0.000461391201715935      -1.30473547795661         0.000461391201715935      
1.749755859375            782.303141623456          94.7255906028213          0.000458375869812039      -1.29529187752209         0.000458375869812039      
1.7498779296875           787.110968425558          95.3489094691526          0.000455379355944279      -1.28577880796901         0.000455379355944279      
1.75                      791.943964378732          95.9765016474976          0.000452401621613351      -1.27619589580794         0.000452401621613351      
1.7501220703125           796.802043871577          96.6083820840877          0.00044944262644195       -1.26654276591123         0.00044944262644195       
1.750244140625            801.685121109957          97.2445656341937          0.000446502328383211      -1.25681904202497         0.000446502328383211      
1.7503662109375           806.593110186606          97.8850670226193          0.000443580683929798      -1.24702434732548         0.000443580683929798      
1.75048828125             811.525925150671          98.5299008007419          0.000440677648324927      -1.23715830503174         0.000440677648324927      
1.7506103515625           816.483480078943          99.1790813001329          0.000437793175774023      -1.22722053906779         0.000437793175774023      
1.750732421875            821.465689146633          99.8326225823784          0.00043492721965816       -1.21721067478659         0.00043492721965816       
1.7508544921875           826.47246669903           100.490538385127          0.00043207973274814       -1.20712833974974         0.00043207973274814       
1.7509765625              831.503727322049          101.152842063986          0.000429250667420165      -1.19697316457404         0.000429250667420165      
1.7510986328125           836.559385912716          101.819546530326          0.000426439975871983      -1.18674478383968         0.000426439975871983      
1.751220703125            841.639357747336          102.490664184538          0.000423647610340477      -1.17644283707083         0.000423647610340477      
1.7513427734375           846.743558548282          103.166206844888          0.00042087352331947       -1.16606696978341         0.00042087352331947       
1.75146484375             851.871904547035          103.846185671479          0.000418117667778585      -1.15561683460999         0.000418117667778585      
1.7515869140625           857.024312543904          104.530611085492          0.000415379997382044      -1.14509209249713         0.000415379997382044      
1.751708984375            862.200699962037          105.219492683211          0.000412660466707981      -1.13449241398418         0.000412660466707981      
1.7518310546875           867.400984895802          105.912839145074          0.000409959031467179      -1.12381748055822         0.000409959031467179      
1.751953125               872.625086150663          106.610658139215          0.000407275648721716      -1.11306698609406         0.000407275648721716      
1.7520751953125           877.872923274461          107.312956219825          0.00040461027710229       -1.10224063837305         0.00040461027710229       
1.752197265625            883.144416576937          108.019738719823          0.000401962877024554      -1.0913381606883          0.000401962877024554      
1.7523193359375           888.439487136766          108.731009638215          0.00039933341090322       -1.08035929352969         0.00039933341090322       
1.75244140625             893.758056792808          109.446771521677          0.000396721843364         -1.06930379635479         0.000396721843364         
1.7525634765625           899.100048118363          110.167025340835          0.000394128141452052      -1.05817144943752         0.000394128141452052      
1.752685546875            904.465384374571          110.89177036082           0.000391552274836903      -1.04696205579967         0.000391552274836903      
1.7528076171875           909.853989441462          111.621004006685          0.000388994216012269      -1.03567544321532         0.000388994216012269      
1.7529296875              915.265787722464          112.354721723365          0.000386453940490558      -1.02431146629076         0.000386453940490558      
1.7530517578125           920.700704020228          113.092916830843          0.000383931426990422      -1.01287000860903         0.000383931426990422      
1.753173828125            926.158663379417          113.835580374338          0.000381426657616804      -1.00135098493861         0.000381426657616804      
1.7532958984375           931.639590893935          114.582700970379          0.000378939618031728      -0.989754343493157        0.000378939618031728      
1.75341796875             937.143411473732          115.334264648595          0.000376470297615167      -0.978080068239852        0.000376470297615167      
1.7535400390625           942.670049568608          116.090254690343          0.000374018689613969      -0.966328181240259        0.000374018689613969      
1.753662109375            948.219428844016          116.850651464156          0.000371584791277975      -0.954498745017986        0.000371584791277975      
1.7537841796875           953.791471805939          117.615432259251          0.000369168603981261      -0.942591864935387        0.000369168603981261      
1.75390625                959.38609937011           118.384571117352          0.000366770133327378      -0.930607691569648        0.000366770133327378      
1.7540283203125           965.003230372703          119.158038664187          0.000364389389236454      -0.918546423068153        0.000364389389236454      
1.754150390625            970.64278101784           119.935801941138          0.000362026386012956      -0.906408307470817        0.000362026386012956      
1.7542724609375           976.304664259636          120.717824238601          0.000359681142391878      -0.89419364497629         0.000359681142391878      
1.75439453125             981.988789114762          121.504064931714          0.00035735368156208       -0.881902790136903        0.00035735368156208       
1.7545166015625           987.695059903721          122.294479320222          0.00035504403116467       -0.869536153958081        0.00035504403116467       
1.754638671875            993.423375418048          123.089018473321          0.000352752223265113      -0.857094205883541        0.000352752223265113      
1.7547607421875           999.173628012693          123.887629081394          0.000350478294297082      -0.84457747564139         0.000350478294297082      
1.7548828125              1004.94570262199          124.690253315677          0.000348222284977015      -0.831986554931694        0.000348222284977015      
1.7550048828125           1010.739467502            125.496827680566          0.000345984242992055      -0.819322098839898        0.000345984242992055      
1.755126953125            1016.55477736225          126.30728342107           0.000343764221238536      -0.806584827109327        0.000343764221238536      
1.7552490234375           1022.3914769216           127.121547007172          0.00034156227597363       -0.793775525222014        0.00034156227597363       
1.75537109375             1028.24939931206          127.939540002747          0.000339378466728916      -0.780895045220618        0.000339378466728916      
1.7554931640625           1034.1283647677           128.761178994364          0.000337212856066951      -0.767944306260176        0.000337212856066951      
1.755615234375            1040.02817925391          129.586375537756          0.000335065509303522      -0.754924294872019        0.000335065509303522      
1.7557373046875           1045.94863304444          130.415036123937          0.000332936494195624      -0.74183606492194         0.000332936494195624      
1.755859375               1051.88949925394          131.247062165941          0.000330825880595803      -0.728680737249226        0.000330825880595803      
1.7559814453125           1057.85053233558          132.082350007921          0.000328733740073813      -0.715459498975266        0.000328733740073813      
1.756103515625            1063.83146655463          132.920790957438          0.000326660145506852      -0.70217360247256         0.000326660145506852      
1.7562255859375           1069.83201444989          133.762271342198          0.000324605170640273      -0.688824363991223        0.000324605170640273      
1.75634765625             1075.85186529611          134.606672591829          0.000322568889620853      -0.675413161940265        0.000322568889620853      
1.7564697265625           1081.89068358177          135.45387134546           0.000320551376505343      -0.661941434829337        0.000320551376505343      
1.756591796875            1087.94810751746          136.303739585272          0.000318552704747172      -0.6484106788755          0.000318552704747172      
1.7567138671875           1094.02374759042          137.156144796201          0.000316572946664969      -0.634822445290846        0.000316572946664969      
1.7568359375              1100.11718518241          138.010950151494          0.000314612172896368      -0.621178337262791        0.000314612172896368      
1.7569580078125           1106.22797126707          138.868014723657          0.000312670451841565      -0.607480006652777        0.000312670451841565      
1.757080078125            1112.35562520431          139.727193719892          0.000310747849100722      -0.593729150433116        0.000310747849100722      
1.7572021484375           1118.49963364792          140.588338740949          0.00030884442691018       -0.579927506896435        0.00030884442691018       
1.75732421875             1124.65944958377          141.45129806197           0.000306960243581957      -0.566076851664064        0.000306960243581957      
1.7574462890625           1130.83449151285          142.315916933446          0.000305095352951915      -0.552178993536415        0.000305095352951915      
1.757568359375            1137.02414279568          143.182037900521          0.000303249803841084      -0.538235770215536        0.000303249803841084      
1.7576904296875           1143.22775116962          144.04950113804           0.000301423639535692      -0.524249043949728        0.000301423639535692      
1.7578125                 1149.44462845296          144.918144799151          0.000299616897290204      -0.510220697133294        0.000299616897290204      
1.7579345703125           1155.67405044401          145.787805374375          0.000297829607858709      -0.496152627914378        0.000297829607858709      
1.758056640625            1161.91525702556          146.658318058674          0.000296061795058451      -0.48204674584428         0.000296061795058451      
1.7581787109375           1168.16745247854          147.529517122991          0.000294313475370421      -0.467904967621868        0.000294313475370421      
1.75830078125             1174.42980601097          148.4012362877            0.000292584657580011      -0.453729212964625        0.000292584657580011      
1.7584228515625           1180.70145250111          149.273309094181          0.000290875342461924      -0.439521400657231        0.000290875342461924      
1.758544921875            1186.98149345613          150.145569272107          0.000289185522511355      -0.425283444803816        0.000289185522511355      