VARIABLES = "X" "temp" "u" "rho" "X0" "X1" "XRHO"
 ZONE I=7 FORMAT=POINT
0                         298                       34.8937627534755          0.00124434631149345       -1.84575416142009         -1.9669814428205          0.00124434631149345       
0.25                      297.999999984168          34.893762751973           0.00124434631154703       -1.84575416155904         -1.96698144285881         0.00124434631154703       
0.625                     297.999999957538          34.8937627533132          0.00124434631149924       -1.84575416564254         -1.96698144312598         0.00124434631149924       
0.875                     297.999999945698          34.8937627969749          0.00124434630994223       -1.84575420761983         -1.96698144587563         0.00124434630994223       
1.125                     297.999999937779          34.8937633603001          0.00124434628985349       -1.84575473380633         -1.96698148034545         0.00124434628985349       
1.3125                    297.999999933769          34.8937680541311          0.00124434612246684       -1.84575911159707         -1.96698176712825         0.00124434612246684       
1.4375                    297.999999938779          34.8937937461882          0.00124434520626348       -1.84578307093487         -1.96698333662097         0.00124434520626348       
1.5                       298.000000008838          34.893862166211           0.00124434276634652       -1.84584687068423         -1.96698751552689         0.00124434276634652       
1.53125                   298.000000354116          34.8939703946097          0.00124433890684812       -1.84594776615373         -1.96699412262914         0.00124433890684812       
1.5625                    298.000002600507          34.8942348455359          0.00124432947644872       -1.84619415247947         -1.96701024806838         0.00124432947644872       
1.59375                   298.000017109898          34.8948816972049          0.00124430641012644       -1.84679587037306         -1.96704957428772         0.00124430641012644       
1.609375                  298.000054021737          34.8955575142777          0.00124428231182957       -1.84742223713172         -1.96709038633896         0.00124428231182957       
1.625                     298.000191496813          34.8967294677149          0.00124424052450636       -1.84850065443229         -1.96716025068196         0.00124424052450636       
1.640625                  298.000703424781          34.8987794512259          0.00124416743677761       -1.85035816631704         -1.96727916337715         0.00124416743677761       
1.6484375                 298.001482168706          34.900404801262           0.00124410949453962       -1.85179113293596         -1.96736900105676         0.00124410949453962       
1.65625                   298.003320978804          34.9027094660245          0.00124402734460588       -1.85374437385266         -1.96748777384682         0.00124402734460588       
1.6640625                 298.007662060393          34.9060651851617          0.00124390774916386       -1.85640980140421         -1.96764148250282         0.00124390774916386       
1.671875                  298.017907867441          34.911149867484           0.00124372657851686       -1.86005357679394         -1.9678326072877          0.00124372657851686       
1.67578125                298.028254691576          34.914838566909           0.00124359518070472       -1.86238221619922         -1.96793860019521         0.00124359518070472       
1.6796875                 298.045632279284          34.9198094314422          0.00124341815387958       -1.86514819055422         -1.96804355272798         0.00124341815387958       
1.68359375                298.074812157408          34.9267119377669          0.00124317241928522       -1.86844042150636         -1.9681343908165          0.00124317241928522       
1.6875                    298.123797407622          34.9365955876015          0.00124282072272685       -1.87236955655494         -1.9681874806124          0.00124282072272685       
1.69140625                298.206003092519          34.9511726169973          0.00124230238150577       -1.87707503478509         -1.96816155292139         0.00124230238150577       
1.6953125                 298.343896997878          34.9732553850972          0.00124151796856094       -1.88273511205261         -1.96798615712135         0.00124151796856094       
1.697265625               298.447838433245          34.9888534819295          0.00124096449753455       -1.88601059795165         -1.96779796641664         0.00124096449753455       
1.69921875                298.586912377952          35.0089314039162          0.00124025279379877       -1.88964046227777         -1.96750584077455         0.00124025279379877       
1.701171875               298.772938971218          35.0349250902412          0.00123933260514246       -1.89367303468296         -1.96707323325299         0.00123933260514246       
1.703125                  299.02167962781           35.0687429588502          0.00123813747860574       -1.89816541876138         -1.96645202850474         0.00123813747860574       
1.705078125               299.354126784364          35.1129200450358          0.00123657972426411       -1.90318541422424         -1.96557912077174         0.00123657972426411       
1.70703125                299.798198218524          35.1708205187829          0.001234543987036         -1.90881386589658         -1.96437209260839         0.001234543987036         
1.708984375               300.390949975215          35.2469022709408          0.00123187917794712       -1.91514750942281         -1.96272383256171         0.00123187917794712       
1.7109375                 301.18144434709           35.3470599936427          0.00122838858473156       -1.92230237364819         -1.96049595700152         0.00122838858473156       
1.712890625               302.234428346791          35.479065546264           0.0012238181682143        -1.93041776997944         -1.95751098291999         0.0012238181682143        
1.71484375                303.634985694917          35.6531254620811          0.00121784344156664       -1.939660837055           -1.95354337465817         0.00121784344156664       
1.716796875               305.49430751991           35.8825735657342          0.00121005604423842       -1.95023149980186         -1.94830991574164         0.00121005604423842       
1.71875                   307.956661216001          36.1847091748208          0.00119995230110642       -1.96236753441672         -1.94146041150147         0.00119995230110642       
1.720703125               311.207490601472          36.5817743584422          0.0011869278026148        -1.97634921523137         -1.93257058620385         0.0011869278026148        
1.7216796875              313.218899504869          36.826757462324           0.00117903198804328       -1.98418549562488         -1.9271489024592          0.00117903198804328       
1.72265625                315.544983764667          37.1095750674478          0.0011700464097135        -1.99265157413129         -1.92096498632483         0.0011700464097135        
1.7236328125              318.230892943963          37.4356498804729          0.00115985498375463       -2.00180387321497         -1.91393379978562         0.00115985498375463       
1.724609375               321.326988456517          37.8110350174876          0.00114834003022429       -2.01170243127425         -1.90596641844101         0.00114834003022429       
1.7255859375              324.889066474049          38.2424427736459          0.00113538576400612       -2.02241056047821         -1.8969714759274          0.00113538576400612       
1.7265625                 328.978474033601          38.7372610811867          0.0011208826826048        -2.03399432198744         -1.88685708543577         0.0011208826826048        
1.7275390625              333.662084243707          39.3035536183837          0.00110473280737972       -2.04652179692442         -1.87553326099068         0.00110473280737972       
1.72802734375             336.255344166808          39.6169808846             0.00109599278301311       -2.05319421297885         -1.86935788497313         0.00109599278301311       
1.728515625               339.031612702225          39.9524349976872          0.00108679045826435       -2.06014032318532         -1.86283422905277         0.00108679045826435       
1.72900390625             342.00143431415           40.3111923988594          0.00107711835253054       -2.06736950355418         -1.8559519650671          0.00107711835253054       
1.7294921875              345.17565112428           40.6945671660944          0.00106697105225468       -2.07489092039665         -1.84870150780646         0.00106697105225468       
1.72998046875             348.565372709255          41.1039076335614          0.00105634543416455       -2.08271342883645         -1.84107412715253         0.00105634543416455       
1.73046875                352.181940992129          41.5405924458247          0.00104524087411847       -2.09084545489639         -1.83306205546008         0.00104524087411847       
1.73095703125             356.036890527416          42.0060260851582          0.00103365943437509       -2.09929486083233         -1.82465858513049         0.00103365943437509       
1.7314453125              360.141904315656          42.5016338907322          0.00102160602293027       -2.10806879162163         -1.81585815257283         0.00102160602293027       
1.73193359375             364.508765437012          43.0288566076748          0.0010090885185766        -2.11717350064819         -1.8066564042078          0.0010090885185766        
1.732421875               369.149304907372          43.5891445181792          0.00099611785578342       -2.12661415253656         -1.79705023999669         0.00099611785578342       
1.73291015625             374.075346273425          44.1839512212511          0.000982708064235282      -2.13639460102269         -1.78703782992354         0.000982708064235282      
1.7333984375              379.298647570444          44.8147271413977          0.000968876258898226      -2.14651713974106         -1.77661859895258         0.000968876258898226      
1.73388671875             384.830841363642          45.4829128592149          0.000954642577784096      -2.15698222388731         -1.76579317624796         0.000954642577784096      
1.734375                  390.683373676226          46.189932367756           0.000940030066106415      -2.16778816083852         -1.75456330485812         0.000940030066106415      
1.73486328125             396.867442670492          46.937186367278           0.00092506450720574       -2.17893076808396         -1.74293170867664         0.00092506450720574       
1.7353515625              403.393937989265          47.7260457168753          0.000909774202385976      -2.19040299720034         -1.73090191426742         0.000909774202385976      
1.73583984375             410.273381680658          48.5578451645276          0.00089418970355661       -2.20219452307241         -1.71847802604516         0.00089418970355661       
1.736328125               417.515871618159          49.433877476547           0.000878343504225427      -2.21429129824084         -1.70566445437832         0.000878343504225427      
1.73681640625             425.131028289496          50.3553880839418          0.000862269695832555      -2.22667507266749         -1.69246559713326         0.000862269695832555      
1.737060546875            429.082865212638          50.8338192434276          0.000854154297489364      -2.23299616641541         -1.68569040205079         0.000854154297489364      
1.7373046875              433.132819125388          51.3242601600385          0.000845992227204718      -2.23937987415045         -1.67881680739599         0.000845992227204718      
1.737548828125            437.281968758065          51.8268561852728          0.000837788134491765      -2.24582186016715         -1.67184492395418         0.000837788134491765      
1.73779296875             441.531352526692          52.341748853723           0.000829546702362006      -2.25231732982994         -1.6647747448564          0.000829546702362006      
1.738037109375            445.881967506303          52.8690758256036          0.000821272633891997      -2.25886100336156         -1.65760612574333         0.000821272633891997      
1.73828125                450.334768354645          53.4089708272166          0.000812970639189014      -2.2654470883231          -1.65033876483595         0.000812970639189014      
1.738525390625            454.890666381404          53.9615636131708          0.000804645422435035      -2.27206925156568         -1.64297218218589         0.000804645422435035      
1.73876953125             459.550528727709          54.5269799462222          0.000796301669162531      -2.27872059055255         -1.63550569831153         0.000796301669162531      
1.739013671875            464.31517765723           55.1053415950334          0.000787944033834483      -2.28539360412874         -1.62793841229183         0.000787944033834483      
1.7392578125              469.185389959466          55.6967663500436          0.000779577127796745      -2.2920801628009          -1.62026917938448         0.000779577127796745      
1.739501953125            474.161896465124          56.301368057561           0.000771205507666031      -2.29877147859707         -1.61249658823744         0.000771205507666031      
1.73974609375             479.24538167272           56.9192566721004          0.000762833664211871      -2.30545807458401         -1.60461893776919         0.000762833664211871      
1.739990234375            484.436483485103          57.5505383269064          0.000754466011784561      -2.31212975412708         -1.59663421379515         0.000754466011784561      
1.740234375               489.735793053796          58.1953154224705          0.000746106878335608      -2.31877556997135         -1.58854006547563         0.000746106878335608      
1.740478515625            495.14385472842           58.8536867327962          0.000737760496070835      -2.32538379324647         -1.5803337816719          0.000737760496070835      
1.74072265625             500.661166108133          59.5257475290683          0.00072943099276951       -2.3319418824788          -1.57201226728634         0.00072943099276951       
1.740966796875            506.288178191309          60.2115897202897          0.000721122383796852      -2.33843645272542         -1.56357201967846         0.000721122383796852      
1.7412109375              512.025295619187          60.9113020103885          0.000712838564830652      -2.34485324492126         -1.55500910523516         0.000712838564830652      
1.741455078125            517.872877009057          61.6249700711654          0.000704583305316293      -2.3511770955655          -1.54631913619062         0.000704583305316293      
1.74169921875             523.831235371978          62.3526767304606          0.000696360242658454      -2.35739190685469         -1.53749724778003         0.000696360242658454      
1.741943359375            529.900638609736          63.0945021747424          0.000688172877152023      -2.36348061739512         -1.52853807582423         0.000688172877152023      
1.7421875                 536.08131008575           63.8505241653431          0.000680024567648798      -2.36942517361971         -1.51943573483552         0.000680024567648798      
1.742431640625            542.373429264286          64.6208182674482          0.000671918527951725      -2.37520650206045         -1.51018379674901         0.000671918527951725      
1.74267578125             548.777132412263          65.4054580908508          0.00066385782392354       -2.38080448262399         -1.50077527037928         0.00066385782392354       
1.742919921875            555.292513358064          66.2045155415099          0.000655845371292222      -2.38619792303505         -1.49120258171126         0.000655845371292222      
1.7431640625              561.91962430176           67.0180610827642          0.000647883934131935      -2.39136453463677         -1.481457555145           0.000647883934131935      
1.743408203125            568.658476671299          67.8461640050843          0.000639976123994671      -2.396280909735           -1.47153139581257         0.000639976123994671      
1.74365234375             575.509042019294          68.6888927030948          0.000632124399665188      -2.40092250071748         -1.46141467310838         0.000632124399665188      
1.743896484375            582.471252955648          69.5463149585539          0.00062433106750904       -2.40526360118071         -1.4510973055735          0.00062433106750904       
1.744140625               589.545004111295          70.4184982278948          0.000616598282382016      -2.40927732934593         -1.44056854730118         0.000616598282382016      
1.744384765625            596.730153128775          71.3055099327844          0.000608928049067882      -2.41293561405714         -1.42981697603684         0.000608928049067882      
1.74462890625             604.026521676091          72.2074177521036          0.000601322224210115      -2.41620918370664         -1.41883048317378         0.000601322224210115      
1.744873046875            611.433896480561          73.1242899135552          0.000593782518703252      -2.41906755847176         -1.40759626586762         0.000593782518703252      
1.7451171875              618.95203037995           74.0561954830038          0.000586310500509271      -2.42147904628225         -1.39610082151296         0.000586310500509271      
1.745361328125            626.58064338908           75.0032046494314          0.000578907597864684      -2.42341074300947         -1.3843299448653          0.000578907597864684      
1.74560546875             634.319423780489          75.9653890032375          0.000571575102844876      -2.42482853741109         -1.37226872811772         0.000571575102844876      
1.745849609375            642.168029178419          76.9428218052929          0.000564314175253398      -2.42569712144105         -1.35990156428502         0.000564314175253398      
1.74609375                650.126087666412          77.9355782439769          0.00055712584680486       -2.42598000660121         -1.34721215428809         0.00055712584680486       
1.746337890625            658.193198909261          78.9437356770486          0.000550011025572041      -2.42563954709394         -1.33418351818029         0.000550011025572041      
1.74658203125             666.368935290825          79.9673738548288          0.000542970500669589      -2.4246369706233          -1.32079801101126         0.000542970500669589      
1.746826171875            674.652843070333          81.0065751208256          0.000536004947148396      -2.42293241778912         -1.30703734388049         0.000536004947148396      
1.7470703125              683.044443560344          82.061424585399           0.000529114931077125      -2.42048499112403         -1.29288261079664         0.000529114931077125      
1.747314453125            691.543234330455          83.1320102675579          0.00052230091478961       -2.41725281494703         -1.27831432203128         0.00052230091478961       
1.74755859375             700.148690442083          84.2184231994121          0.000515563262278842      -2.41319310733292         -1.26331244472895         0.000515563262278842      
1.747802734375            708.860265720453          85.320757487106           0.000508902244720867      -2.40826226563963         -1.24785645161802         0.000508902244720867      
1.748046875               717.677394070904          86.4391103213214          0.000502318046114272      -2.40241596719373         -1.23192537875714         0.000502318046114272      
1.748291015625            726.599490848079          87.5735819296584          0.000495810769022997      -2.39560928689366         -1.21549789334408         0.000495810769022997      
1.74853515625             735.625954287165          88.7242754622621          0.000489380440412676      -2.3877968336499          -1.19855237270679         0.000489380440412676      
1.748779296875            744.756167007146          89.8912968010903          0.000483027017572925      -2.37893290775725         -1.18106699570235         0.000483027017572925      
1.7490234375              753.989497596997          91.0747542821874          0.000476750394119553      -2.36897168144061         -1.16301984784344         0.000476750394119553      
1.749267578125            763.325302295981          92.2747583182427          0.000470550406077641      -2.35786740537323         -1.1443890418002          0.000470550406077641      
1.7493896484375           768.031564351383          92.881128898013           0.000467478437792021      -2.35185380389245         -1.13481892048527         0.000467478437792021      
1.74951171875             772.763336599711          93.4917127817231          0.000464425388070754      -2.3455296267331          -1.12509057853316         0.000464425388070754      
1.7496337890625           777.520569333587          94.1065300477005          0.000461391201715935      -2.33888884895644         -1.1152010123567          0.000461391201715935      
1.749755859375            782.303141623456          94.7255906028213          0.000458375869812039      -2.33192572693173         -1.10514758871051         0.000458375869812039      
1.7498779296875           787.110968425558          95.3489094691526          0.000455379355944279      -2.32463446126447         -1.09492753548045         0.000455379355944279      
1.75                      791.943964378732          95.9765016474976          0.000452401621613351      -2.31700932431514         -1.08453812145251         0.000452401621613351      
1.7501220703125           796.802043871577          96.6083820840877          0.00044944262644195       -2.30904467182835         -1.07397666314397         0.00044944262644195       
1.750244140625            801.685121109957          97.2445656341937          0.000446502328383211      -2.30073495520281         -1.06324053201889         0.000446502328383211      
1.7503662109375           806.593110186606          97.8850670226193          0.000443580683929798      -2.29207473441232         -1.05232716208974         0.000443580683929798      
1.75048828125             811.525925150671          98.5299008007419          0.000440677648324927      -2.28305869160394         -1.04123405792578         0.000440677648324927      
1.7506103515625           816.483480078943          99.1790813001329          0.000437793175774023      -2.27368164538153         -1.02995880306852         0.000437793175774023      
1.750732421875            821.465689146633          99.8326225823784          0.00043492721965816       -2.26393856579426         -1.01849906887123         0.00043492721965816       
1.7508544921875           826.47246669903           100.490538385127          0.00043207973274814       -2.25382459003544         -1.00685262376107         0.00043207973274814       
1.7509765625              831.503727322049          101.152842063986          0.000429250667420165      -2.24333503886703         -0.995017342938134        0.000429250667420165      
1.7510986328125           836.559385912716          101.819546530326          0.000426439975871983      -2.23246543376337         -0.98299121850329         0.000426439975871983      
1.751220703125            841.639357747336          102.490664184538          0.000423647610340477      -2.22121151478748         -0.97077237002765         0.000423647610340477      
1.7513427734375           846.743558548282          103.166206844888          0.00042087352331947       -2.20956925918069         -0.958359055548197        0.00042087352331947       
1.75146484375             851.871904547035          103.846185671479          0.000418117667778585      -2.19753490066969         -0.945749682996453        0.000418117667778585      
1.7515869140625           857.024312543904          104.530611085492          0.000415379997382044      -2.18510494946058         -0.932942822038417        0.000415379997382044      
1.751708984375            862.200699962037          105.219492683211          0.000412660466707981      -2.1722762129065          -0.919937216321955        0.000412660466707981      
1.7518310546875           867.400984895802          105.912839145074          0.000409959031467179      -2.15904581681122         -0.906731796105401        0.000409959031467179      
1.751953125               872.625086150663          106.610658139215          0.000407275648721716      -2.14541122732992         -0.893325691248513        0.000407275648721716      
1.7520751953125           877.872923274461          107.312956219825          0.00040461027710229       -2.131370273416           -0.879718244531105        0.00040461027710229       
1.752197265625            883.144416576937          108.019738719823          0.000401962877024554      -2.11692116975378         -0.865909025267566        0.000401962877024554      
1.7523193359375           888.439487136766          108.731009638215          0.00039933341090322       -2.1020625401023          -0.851897843168214        0.00039933341090322       
1.75244140625             893.758056792808          109.446771521677          0.000396721843364         -2.0867934409674          -0.837684762401818        0.000396721843364         
1.7525634765625           899.100048118363          110.167025340835          0.000394128141452052      -2.07111338549978         -0.823270115793498        0.000394128141452052      
1.752685546875            904.465384374571          110.89177036082           0.000391552274836903      -2.0550223675117          -0.808654519096979        0.000391552274836903      
1.7528076171875           909.853989441462          111.621004006685          0.000388994216012269      -2.03852088547512         -0.793838885254615        0.000388994216012269      
1.7529296875              915.265787722464          112.354721723365          0.000386453940490558      -2.02160996636901         -0.778824438568179        0.000386453940490558      
1.7530517578125           920.700704020228          113.092916830843          0.000383931426990422      -2.00429118920477         -0.763612728673344        0.000383931426990422      
1.753173828125            926.158663379417          113.835580374338          0.000381426657616804      -1.986566708062           -0.748205644218721        0.000381426657616804      
1.7532958984375           931.639590893935          114.582700970379          0.000378939618031728      -1.96843927443428         -0.732605426124522        0.000378939618031728      
1.75341796875             937.143411473732          115.334264648595          0.000376470297615167      -1.94991225868356         -0.716814680300622        0.000376470297615167      
1.7535400390625           942.670049568608          116.090254690343          0.000374018689613969      -1.93098967036798         -0.700836389677807        0.000374018689613969      
1.753662109375            948.219428844016          116.850651464156          0.000371584791277975      -1.91167617721391         -0.684673925414149        0.000371584791277975      
1.7537841796875           953.791471805939          117.615432259251          0.000369168603981261      -1.89197712246374         -0.66833105711007         0.000369168603981261      
1.75390625                959.38609937011           118.384571117352          0.000366770133327378      -1.87189854034676         -0.651811961879048        0.000366770133327378      
1.7540283203125           965.003230372703          119.158038664187          0.000364389389236454      -1.85144716938091         -0.635121232092722        0.000364389389236454      
1.754150390625            970.64278101784           119.935801941138          0.000362026386012956      -1.83063046323131         -0.618263881634036        0.000362026386012956      
1.7542724609375           976.304664259636          120.717824238601          0.000359681142391878      -1.80945659882511         -0.60124535047148         0.000359681142391878      
1.75439453125             981.988789114762          121.504064931714          0.00035735368156208       -1.7879344814358          -0.584071507379733        0.00035735368156208       
1.7545166015625           987.695059903721          122.294479320222          0.00035504403116467       -1.76607374643891         -0.566748650622365        0.00035504403116467       
1.754638671875            993.423375418048          123.089018473321          0.000352752223265113      -1.74388475746458         -0.54928350642712         0.000352752223265113      
1.7547607421875           999.173628012693          123.887629081394          0.000350478294297082      -1.72137860065801         -0.531683225076399        0.000350478294297082      
1.7548828125              1004.94570262199          124.690253315677          0.000348222284977015      -1.69856707480647         -0.513955374463407        0.000348222284977015      
1.7550048828125           1010.739467502            125.496827680566          0.000345984242992055      -1.67546267691419         -0.496107930829435        0.000345984242992055      
1.755126953125            1016.55477736225          126.30728342107           0.000343764221238536      -1.65207858330697         -0.47814926677276         0.000343764221238536      
1.7552490234375           1022.3914769216           127.121547007172          0.00034156227597363       -1.62842862602684         -0.460088136390873        0.00034156227597363       